# vtk DataFile Version 1.0
Cube
ASCII

DATASET POLYDATA
POINTS 348 float
13.587557 22.388278 21.109575
14.208862 21.240261 22.007756
15.596549 21.575795 22.258830
4.283877 19.387559 17.435699
5.769128 19.111914 17.481988
6.665011 20.315082 17.703918
9.970740 18.445061 15.756224
10.368401 18.318250 14.265078
9.212464 18.003390 13.294795
-1.028203 6.338090 13.675947
-1.543810 6.633228 15.063140
-2.995127 6.937072 15.086184
28.971797 6.338090 13.675947
28.456190 6.633228 15.063140
27.004873 6.937072 15.086184
2.197436 1.319265 27.767035
1.591428 1.377258 26.320617
2.196146 0.362373 25.477345
2.197436 31.319265 27.767035
1.591428 31.377258 26.320617
2.196146 30.362373 25.477345
32.197436 1.319265 27.767035
31.591428 1.377258 26.320617
32.196146 0.362373 25.477345
32.197436 31.319265 27.767035
31.591428 31.377258 26.320617
32.196146 30.362373 25.477345
11.951356 16.518211 22.782184
12.725737 16.605211 24.133493
11.727922 17.033056 25.173654
27.096594 12.166132 20.203400
26.504753 13.138102 21.231064
26.980166 12.835065 22.689244
26.695784 1.694510 24.145319
26.070496 2.657121 25.209207
26.073876 4.172160 24.831930
26.695784 31.694510 24.145319
26.070496 32.657121 25.209207
26.073876 34.172160 24.831930
8.830507 2.658266 20.832863
9.967031 1.602530 20.920764
11.386293 2.061879 20.646184
8.830507 32.658266 20.832863
9.967031 31.602530 20.920764
11.386293 32.061879 20.646184
7.436079 -1.301854 23.378937
8.628164 -2.210945 22.872991
10.072394 -1.557320 23.178955
7.436079 28.698146 23.378937
8.628164 27.789055 22.872991
10.072394 28.442680 23.178955
17.316681 21.598937 11.725639
18.631332 21.917965 12.642597
19.892566 22.103951 11.853194
10.927391 17.895934 -0.242285
9.782598 18.860390 -0.414968
9.964665 20.074446 0.462658
10.927391 17.895934 29.757715
9.782598 18.860390 29.585032
9.964665 20.074446 30.462658
26.262502 1.611194 5.040951
26.449922 3.031598 4.654152
25.387909 3.981599 5.257445
26.262502 31.611194 5.040951
26.449922 33.031598 4.654152
25.387909 33.981599 5.257445
27.531037 0.825941 -0.994588
26.277082 0.182080 -1.042315
26.028293 -0.653551 -2.430344
27.531037 0.825941 29.005412
26.277082 0.182080 28.957685
26.028293 -0.653551 27.569656
27.531037 30.825941 -0.994588
26.277082 30.182080 -1.042315
26.028293 29.346449 -2.430344
27.531037 30.825941 29.005412
26.277082 30.182080 28.957685
26.028293 29.346449 27.569656
15.200456 13.327801 20.196320
14.497890 12.559931 19.158895
15.297315 11.190619 18.919865
14.397795 2.250651 24.490969
13.514154 3.265602 25.174462
14.097176 4.578232 25.800481
19.124543 17.843705 16.244305
19.709901 18.443528 14.982464
20.282418 19.825993 15.284785
21.865218 8.077975 0.952703
21.462497 7.065160 2.139802
20.084944 6.512090 2.187296
21.865218 8.077975 30.952703
21.462497 7.065160 32.139802
20.084944 6.512090 32.187296
2.063538 8.147414 1.527532
1.462321 9.589369 1.713552
0.700005 9.756965 3.209067
2.063538 8.147414 31.527532
1.462321 9.589369 31.713552
0.700005 9.756965 33.209067
32.063538 8.147414 1.527532
31.462321 9.589369 1.713552
30.700005 9.756965 3.209067
32.063538 8.147414 31.527532
31.462321 9.589369 31.713552
30.700005 9.756965 33.209067
6.179114 7.872284 10.143373
5.161242 8.640692 10.777166
3.781271 8.354217 10.071590
19.740324 9.562733 -1.384654
19.323829 8.140117 -1.608187
17.806232 7.835113 -1.379869
19.740324 9.562733 28.615346
19.323829 8.140117 28.391813
17.806232 7.835113 28.620131
12.437790 24.090842 0.431483
13.566449 25.123706 0.764880
14.942573 24.535696 0.550667
12.437790 24.090842 30.431483
13.566449 25.123706 30.764880
14.942573 24.535696 30.550667
21.666020 15.122771 25.830963
21.230268 13.637845 26.078437
20.509442 13.338004 27.421212
-0.884975 23.063218 15.669598
-0.909470 22.839700 14.091267
-2.002276 21.722685 13.673408
29.115025 23.063218 15.669598
29.090530 22.839700 14.091267
27.997724 21.722685 13.673408
6.650182 3.421269 3.854588
5.588620 4.508043 4.133846
4.680359 4.598741 2.948676
0.536923 17.847997 -2.588297
-0.082007 17.830262 -1.054125
0.366340 19.092016 -0.277095
0.536923 17.847997 27.411703
-0.082007 17.830262 28.945875
0.366340 19.092016 29.722905
30.536923 17.847997 -2.588297
29.917993 17.830262 -1.054125
30.366340 19.092016 -0.277095
30.536923 17.847997 27.411703
29.917993 17.830262 28.945875
30.366340 19.092016 29.722905
12.471671 11.531040 15.192857
11.919459 10.211840 15.809465
11.485853 8.838006 14.904690
15.769771 12.520865 -2.726172
16.137328 13.983025 -2.804648
17.211930 14.615641 -1.774549
15.769771 12.520865 27.273828
16.137328 13.983025 27.195352
17.211930 14.615641 28.225451
9.914130 6.801739 11.875621
10.952960 6.473285 10.800609
11.076354 7.635466 9.781466
17.893524 14.384537 16.163197
17.476436 14.689281 17.585659
18.336502 13.904889 18.519208
1.403938 2.578321 11.207544
2.627418 2.187959 10.452425
3.122980 3.411495 9.603226
1.403938 32.578321 11.207544
2.627418 32.187959 10.452425
3.122980 33.411495 9.603226
31.403938 2.578321 11.207544
32.627418 2.187959 10.452425
33.122980 3.411495 9.603226
31.403938 32.578321 11.207544
32.627418 32.187959 10.452425
33.122980 33.411495 9.603226
16.292779 15.324102 6.267553
16.221372 16.049703 7.692183
15.297942 17.338864 7.713188
2.623199 -1.427543 8.851627
1.319329 -1.741406 9.686947
1.834358 -2.286966 11.055653
2.623199 28.572457 8.851627
1.319329 28.258594 9.686947
1.834358 27.713034 11.055653
32.623199 -1.427543 8.851627
31.319329 -1.741406 9.686947
31.834358 -2.286966 11.055653
32.623199 28.572457 8.851627
31.319329 28.258594 9.686947
31.834358 27.713034 11.055653
5.443677 23.694727 24.805737
5.834221 24.968479 24.146698
4.658853 25.672250 23.510382
15.654848 13.403634 13.247275
17.077491 13.338868 12.506920
17.812479 14.715548 12.415468
25.043785 14.376612 -3.657559
25.873797 13.549266 -2.767162
25.212034 13.288726 -1.369816
25.043785 14.376612 26.342441
25.873797 13.549266 27.232838
25.212034 13.288726 28.630184
-0.995255 5.967403 4.206817
0.167087 5.552769 5.143627
1.110291 4.446873 4.401104
29.004745 5.967403 4.206817
30.167087 5.552769 5.143627
31.110291 4.446873 4.401104
15.291369 5.333478 21.724841
15.569098 6.791863 22.188046
16.984737 7.276912 22.117081
5.809884 15.998664 25.586674
6.108148 17.491955 25.937851
4.940493 18.426015 25.826468
9.108595 7.473059 22.102246
9.825977 6.138959 22.383904
10.204343 5.887427 23.804673
10.389225 -1.307986 4.597390
11.764513 -0.668301 4.925068
12.953567 -1.650696 5.323200
10.389225 28.692014 4.597390
11.764513 29.331699 4.925068
12.953567 28.349304 5.323200
2.613055 7.966679 18.159095
3.276262 7.256473 17.004159
3.404405 8.128528 15.739846
8.524755 24.700222 17.109945
7.480609 23.708753 16.775529
6.188771 23.724981 17.759664
16.068711 -0.816997 1.978992
15.799559 -1.802337 3.171626
16.984829 -2.057315 4.240016
16.068711 29.183003 1.978992
15.799559 28.197663 3.171626
16.984829 27.942685 4.240016
8.274219 13.483908 24.013956
8.421079 13.145777 22.546241
9.709977 12.418723 22.156884
-0.685875 4.885445 20.422533
-2.106088 4.999852 19.792828
-3.187380 5.807656 20.652226
29.314125 4.885445 20.422533
27.893912 4.999852 19.792828
26.812620 5.807656 20.652226
23.148777 17.293447 -0.537674
24.377178 17.602809 0.198294
24.374517 19.017713 1.000675
23.148777 17.293447 29.462326
24.377178 17.602809 30.198294
24.374517 19.017713 31.000675
3.383950 6.518652 26.278306
4.260403 5.429937 27.056051
4.716843 4.370611 26.133670
1.263202 11.275821 7.646099
0.794389 12.280357 8.740002
-0.050046 13.496073 8.180841
31.263202 11.275821 7.646099
30.794389 12.280357 8.740002
29.949954 13.496073 8.180841
1.315179 1.176653 6.576574
-0.168977 1.362684 6.667602
-0.769016 1.608656 8.163702
1.315179 31.176653 6.576574
-0.168977 31.362684 6.667602
-0.769016 31.608656 8.163702
31.315179 1.176653 6.576574
29.831023 1.362684 6.667602
29.230984 1.608656 8.163702
31.315179 31.176653 6.576574
29.831023 31.362684 6.667602
29.230984 31.608656 8.163702
15.441759 17.290274 20.535633
9.588504 23.148020 4.693692
24.559493 -1.962100 13.004606
24.559493 28.037900 13.004606
22.618400 23.638113 5.619017
25.910555 16.085861 12.329708
0.036781 7.974252 23.424455
30.036781 7.974252 23.424455
18.526101 3.442236 5.118885
-0.260544 2.330268 16.966093
-0.260544 32.330268 16.966093
29.739456 2.330268 16.966093
29.739456 32.330268 16.966093
17.007280 0.848051 14.240469
17.007280 30.848051 14.240469
5.845700 3.884839 15.245983
6.247393 26.500271 -2.389912
6.247393 26.500271 27.610088
1.555555 1.274253 2.205128
1.555555 1.274253 32.205128
1.555555 31.274253 2.205128
1.555555 31.274253 32.205128
31.555555 1.274253 2.205128
31.555555 1.274253 32.205128
31.555555 31.274253 2.205128
31.555555 31.274253 32.205128
8.554038 10.606435 13.589844
7.108588 16.043327 19.274796
22.807073 16.822663 15.607313
11.491155 14.690003 18.185725
26.294424 7.687705 1.309524
26.294424 7.687705 31.309524
22.582707 26.021387 10.146797
25.739373 8.939913 5.049090
8.434902 3.484121 10.065711
3.575893 0.325305 19.291116
3.575893 30.325305 19.291116
23.570032 20.046367 11.337037
19.762062 19.682125 19.765253
5.725414 11.038225 15.912319
13.643836 11.212546 23.170686
19.955286 10.591311 15.183599
4.762424 18.871576 2.578167
4.762424 18.871576 32.578167
-2.588956 6.498317 8.491244
27.411044 6.498317 8.491244
22.513495 18.337005 23.935083
10.997396 12.006984 4.018828
8.100970 2.339608 24.242058
8.100970 32.339608 24.242058
4.775587 18.303808 10.012380
25.576998 11.420397 2.538388
25.576998 11.420397 32.538388
10.468833 3.137793 5.893549
23.426997 -0.681890 25.111672
23.426997 29.318110 25.111672
9.891309 2.895028 2.222530
9.891309 2.895028 32.222530
9.891309 32.895028 2.222530
9.891309 32.895028 32.222530
6.251352 21.267194 -2.132625
6.251352 21.267194 27.867375
21.664586 25.395560 17.823203
2.242332 -2.973373 5.083729
2.242332 27.026627 5.083729
32.242332 -2.973373 5.083729
32.242332 27.026627 5.083729
5.963922 22.648312 1.396269
5.963922 22.648312 31.396269
6.418652 13.968710 0.283186
6.418652 13.968710 30.283186
20.862593 6.385057 9.891836
15.208698 5.475669 12.360701
22.144149 14.284249 10.330281
6.986776 10.367916 5.608443
18.164828 12.117448 4.703200
12.626656 2.758467 9.265794
12.626656 32.758467 9.265794
18.184017 7.110858 17.574013
12.156836 21.785669 24.938843
26.129451 25.516098 8.318641
LINES 178 534
2 0 1
2 1 2
2 3 4
2 4 5
2 6 7
2 7 8
2 9 10
2 10 11
2 12 13
2 13 14
2 15 16
2 16 17
2 18 19
2 19 20
2 21 22
2 22 23
2 24 25
2 25 26
2 27 28
2 28 29
2 30 31
2 31 32
2 33 34
2 34 35
2 36 37
2 37 38
2 39 40
2 40 41
2 42 43
2 43 44
2 45 46
2 46 47
2 48 49
2 49 50
2 51 52
2 52 53
2 54 55
2 55 56
2 57 58
2 58 59
2 60 61
2 61 62
2 63 64
2 64 65
2 66 67
2 67 68
2 69 70
2 70 71
2 72 73
2 73 74
2 75 76
2 76 77
2 78 79
2 79 80
2 81 82
2 82 83
2 84 85
2 85 86
2 87 88
2 88 89
2 90 91
2 91 92
2 93 94
2 94 95
2 96 97
2 97 98
2 99 100
2 100 101
2 102 103
2 103 104
2 105 106
2 106 107
2 108 109
2 109 110
2 111 112
2 112 113
2 114 115
2 115 116
2 117 118
2 118 119
2 120 121
2 121 122
2 123 124
2 124 125
2 126 127
2 127 128
2 129 130
2 130 131
2 132 133
2 133 134
2 135 136
2 136 137
2 138 139
2 139 140
2 141 142
2 142 143
2 144 145
2 145 146
2 147 148
2 148 149
2 150 151
2 151 152
2 153 154
2 154 155
2 156 157
2 157 158
2 159 160
2 160 161
2 162 163
2 163 164
2 165 166
2 166 167
2 168 169
2 169 170
2 171 172
2 172 173
2 174 175
2 175 176
2 177 178
2 178 179
2 180 181
2 181 182
2 183 184
2 184 185
2 186 187
2 187 188
2 189 190
2 190 191
2 192 193
2 193 194
2 195 196
2 196 197
2 198 199
2 199 200
2 201 202
2 202 203
2 204 205
2 205 206
2 207 208
2 208 209
2 210 211
2 211 212
2 213 214
2 214 215
2 216 217
2 217 218
2 219 220
2 220 221
2 222 223
2 223 224
2 225 226
2 226 227
2 228 229
2 229 230
2 231 232
2 232 233
2 234 235
2 235 236
2 237 238
2 238 239
2 240 241
2 241 242
2 243 244
2 244 245
2 246 247
2 247 248
2 249 250
2 250 251
2 252 253
2 253 254
2 255 256
2 256 257
2 258 259
2 259 260
2 261 262
2 262 263
2 264 265
2 265 266
POINT_DATA 348
SCALARS my_scalars float
LOOKUP_TABLE default
1.7
1.7
1.7
1.7
1.7
1.7
1.7
1.7
1.7
1.7
1.7
1.7
1.7
1.7
1.7
1.7
1.7
1.7
1.7
1.7
1.7
1.7
1.7
1.7
1.7
1.7
1.7
1.7
1.7
1.7
1.7
1.7
1.7
1.7
1.7
1.7
1.7
1.7
1.7
1.7
1.7
1.7
1.7
1.7
1.7
1.7
1.7
1.7
1.7
1.7
1.7
1.7
1.7
1.7
1.7
1.7
1.7
1.7
1.7
1.7
1.7
1.7
1.7
1.7
1.7
1.7
1.7
1.7
1.7
1.7
1.7
1.7
1.7
1.7
1.7
1.7
1.7
1.7
1.7
1.7
1.7
1.7
1.7
1.7
1.7
1.7
1.7
1.7
1.7
1.7
1.7
1.7
1.7
1.7
1.7
1.7
1.7
1.7
1.7
1.7
1.7
1.7
1.7
1.7
1.7
1.7
1.7
1.7
1.7
1.7
1.7
1.7
1.7
1.7
1.7
1.7
1.7
1.7
1.7
1.7
1.7
1.7
1.7
1.7
1.7
1.7
1.7
1.7
1.7
1.7
1.7
1.7
1.7
1.7
1.7
1.7
1.7
1.7
1.7
1.7
1.7
1.7
1.7
1.7
1.7
1.7
1.7
1.7
1.7
1.7
1.7
1.7
1.7
1.7
1.7
1.7
1.7
1.7
1.7
1.7
1.7
1.7
1.7
1.7
1.7
1.7
1.7
1.7
1.7
1.7
1.7
1.7
1.7
1.7
1.7
1.7
1.7
1.7
1.7
1.7
1.7
1.7
1.7
1.7
1.7
1.7
1.7
1.7
1.7
1.7
1.7
1.7
1.7
1.7
1.7
1.7
1.7
1.7
1.7
1.7
1.7
1.7
1.7
1.7
1.7
1.7
1.7
1.7
1.7
1.7
1.7
1.7
1.7
1.7
1.7
1.7
1.7
1.7
1.7
1.7
1.7
1.7
1.7
1.7
1.7
1.7
1.7
1.7
1.7
1.7
1.7
1.7
1.7
1.7
1.7
1.7
1.7
1.7
1.7
1.7
1.7
1.7
1.7
1.7
1.7
1.7
1.7
1.7
1.7
1.7
1.7
1.7
1.7
1.7
1.7
1.7
1.7
1.7
1.7
1.7
1.7
1.7
1.7
1.7
1.7
1.7
1.7
1.7
1.7
1.7
1.7
1.7
1.7
1.7
1.7
1.7
1.7
1.7
1.7
1.7
1.7
1.7
1.7
1.7
1.7
1.7
1.7
1.7
1.7
1.7
1.7
1.7
1.7
1.7
1.7
1.7
1.7
1.7
1.7
1.7
1.7
1.7
1.7
1.7
1.7
1.7
1.7
1.7
1.7
1.7
1.7
1.7
1.7
1.7
1.7
1.7
1.7
1.7
1.7
1.7
1.7
1.7
1.7
1.7
1.7
1.7
1.7
1.7
1.7
1.7
1.7
1.7
1.7
1.7
1.7
1.7
1.7
1.7
1.7
1.7
1.7
1.7
1.7
1.7
1.7
1.7
1.7
1.7
VECTORS vectors float
0.3125 0 0
0.3125 0 0
0.3125 0 0
0.3125 0 0
0.3125 0 0
0.3125 0 0
0.3125 0 0
0.3125 0 0
0.3125 0 0
0.3125 0 0
0.3125 0 0
0.3125 0 0
0.3125 0 0
0.3125 0 0
0.3125 0 0
0.3125 0 0
0.3125 0 0
0.3125 0 0
0.3125 0 0
0.3125 0 0
0.3125 0 0
0.3125 0 0
0.3125 0 0
0.3125 0 0
0.3125 0 0
0.3125 0 0
0.3125 0 0
0.3125 0 0
0.3125 0 0
0.3125 0 0
0.3125 0 0
0.3125 0 0
0.3125 0 0
0.3125 0 0
0.3125 0 0
0.3125 0 0
0.3125 0 0
0.3125 0 0
0.3125 0 0
0.3125 0 0
0.3125 0 0
0.3125 0 0
0.3125 0 0
0.3125 0 0
0.3125 0 0
0.3125 0 0
0.3125 0 0
0.3125 0 0
0.3125 0 0
0.3125 0 0
0.3125 0 0
0.3125 0 0
0.3125 0 0
0.3125 0 0
0.3125 0 0
0.3125 0 0
0.3125 0 0
0.3125 0 0
0.3125 0 0
0.3125 0 0
0.3125 0 0
0.3125 0 0
0.3125 0 0
0.3125 0 0
0.3125 0 0
0.3125 0 0
0.3125 0 0
0.3125 0 0
0.3125 0 0
0.3125 0 0
0.3125 0 0
0.3125 0 0
0.3125 0 0
0.3125 0 0
0.3125 0 0
0.3125 0 0
0.3125 0 0
0.3125 0 0
0.3125 0 0
0.3125 0 0
0.3125 0 0
0.3125 0 0
0.3125 0 0
0.3125 0 0
0.3125 0 0
0.3125 0 0
0.3125 0 0
0.3125 0 0
0.3125 0 0
0.3125 0 0
0.3125 0 0
0.3125 0 0
0.3125 0 0
0.3125 0 0
0.3125 0 0
0.3125 0 0
0.3125 0 0
0.3125 0 0
0.3125 0 0
0.3125 0 0
0.3125 0 0
0.3125 0 0
0.3125 0 0
0.3125 0 0
0.3125 0 0
0.3125 0 0
0.3125 0 0
0.3125 0 0
0.3125 0 0
0.3125 0 0
0.3125 0 0
0.3125 0 0
0.3125 0 0
0.3125 0 0
0.3125 0 0
0.3125 0 0
0.3125 0 0
0.3125 0 0
0.3125 0 0
0.3125 0 0
0.3125 0 0
0.3125 0 0
0.3125 0 0
0.3125 0 0
0.3125 0 0
0.3125 0 0
0.3125 0 0
0.3125 0 0
0.3125 0 0
0.3125 0 0
0.3125 0 0
0.3125 0 0
0.3125 0 0
0.3125 0 0
0.3125 0 0
0.3125 0 0
0.3125 0 0
0.3125 0 0
0.3125 0 0
0.3125 0 0
0.3125 0 0
0.3125 0 0
0.3125 0 0
0.3125 0 0
0.3125 0 0
0.3125 0 0
0.3125 0 0
0.3125 0 0
0.3125 0 0
0.3125 0 0
0.3125 0 0
0.3125 0 0
0.3125 0 0
0.3125 0 0
0.3125 0 0
0.3125 0 0
0.3125 0 0
0.3125 0 0
0.3125 0 0
0.3125 0 0
0.3125 0 0
0.3125 0 0
0.3125 0 0
0.3125 0 0
0.3125 0 0
0.3125 0 0
0.3125 0 0
0.3125 0 0
0.3125 0 0
0.3125 0 0
0.3125 0 0
0.3125 0 0
0.3125 0 0
0.3125 0 0
0.3125 0 0
0.3125 0 0
0.3125 0 0
0.3125 0 0
0.3125 0 0
0.3125 0 0
0.3125 0 0
0.3125 0 0
0.3125 0 0
0.3125 0 0
0.3125 0 0
0.3125 0 0
0.3125 0 0
0.3125 0 0
0.3125 0 0
0.3125 0 0
0.3125 0 0
0.3125 0 0
0.3125 0 0
0.3125 0 0
0.3125 0 0
0.3125 0 0
0.3125 0 0
0.3125 0 0
0.3125 0 0
0.3125 0 0
0.3125 0 0
0.3125 0 0
0.3125 0 0
0.3125 0 0
0.3125 0 0
0.3125 0 0
0.3125 0 0
0.3125 0 0
0.3125 0 0
0.3125 0 0
0.3125 0 0
0.3125 0 0
0.3125 0 0
0.3125 0 0
0.3125 0 0
0.3125 0 0
0.3125 0 0
0.3125 0 0
0.3125 0 0
0.3125 0 0
0.3125 0 0
0.3125 0 0
0.3125 0 0
0.3125 0 0
0.3125 0 0
0.3125 0 0
0.3125 0 0
0.3125 0 0
0.3125 0 0
0.3125 0 0
0.3125 0 0
0.3125 0 0
0.3125 0 0
0.3125 0 0
0.3125 0 0
0.3125 0 0
0.3125 0 0
0.3125 0 0
0.3125 0 0
0.3125 0 0
0.3125 0 0
0.3125 0 0
0.3125 0 0
0.3125 0 0
0.3125 0 0
0.3125 0 0
0.3125 0 0
0.3125 0 0
0.3125 0 0
0.3125 0 0
0.3125 0 0
0.3125 0 0
0.3125 0 0
0.3125 0 0
0.3125 0 0
0.3125 0 0
0.3125 0 0
0.3125 0 0
0.3125 0 0
0.3125 0 0
0.3125 0 0
0.3125 0 0
0.3125 0 0
0.3125 0 0
0.3125 0 0
0.3125 0 0
0.3125 0 0
0.3125 0 0
0.3125 0 0
0.3125 0 0
0.3125 0 0
0.3125 0 0
0.3125 0 0
0.3125 0 0
0.3125 0 0
0.3125 0 0
0.3125 0 0
0.3125 0 0
0.3125 0 0
0.3125 0 0
0.3125 0 0
0.3125 0 0
0.3125 0 0
0.3125 0 0
0.3125 0 0
0.3125 0 0
0.3125 0 0
0.3125 0 0
0.3125 0 0
0.3125 0 0
0.3125 0 0
0.3125 0 0
0.3125 0 0
0.3125 0 0
0.3125 0 0
0.3125 0 0
0.3125 0 0
0.3125 0 0
0.3125 0 0
0.3125 0 0
0.3125 0 0
0.3125 0 0
0.3125 0 0
0.3125 0 0
0.3125 0 0
0.3125 0 0
0.3125 0 0
0.3125 0 0
0.3125 0 0
0.3125 0 0
0.3125 0 0
0.3125 0 0
0.3125 0 0
0.3125 0 0
0.3125 0 0
0.3125 0 0
0.3125 0 0
0.3125 0 0
0.3125 0 0
0.3125 0 0
0.3125 0 0
0.3125 0 0
0.3125 0 0
0.3125 0 0
0.3125 0 0
0.3125 0 0
0.3125 0 0
0.3125 0 0
0.3125 0 0
0.3125 0 0
0.3125 0 0
0.3125 0 0
0.3125 0 0
0.3125 0 0
0.3125 0 0
0.3125 0 0
0.3125 0 0
0.3125 0 0
0.3125 0 0
0.3125 0 0
0.3125 0 0
0.3125 0 0
0.3125 0 0
0.3125 0 0
0.3125 0 0
0.3125 0 0
0.3125 0 0
0.3125 0 0
